<?xml version="1.0" encoding="UTF-8"?>

<!-- generated on 2026-03-10T20:33:32.450921+01:00 by Eclipse SUMO sumo 1.26.0
<sumoConfiguration xmlns:xsi="http://www.w3.org/2001/XMLSchema-instance" xsi:noNamespaceSchemaLocation="http://sumo.dlr.de/xsd/sumoConfiguration.xsd">

    <input>
        <net-file value="/home/tassany/Documents/Codes/HelloWorld_SUMONS3/examples/sumo/map.net.xml"/>
        <route-files value="/home/tassany/Documents/Codes/HelloWorld_SUMONS3/examples/sumo/veh.rou.xml"/>
    </input>

    <output>
        <fcd-output value="/home/tassany/Documents/Codes/HelloWorld_SUMONS3/examples/sumo/fcd.xml"/>
    </output>

    <time>
        <begin value="0"/>
        <end value="100"/>
        <step-length value="0.1"/>
    </time>

    <report>
        <no-warnings value="true"/>
        <no-step-log value="true"/>
    </report>

</sumoConfiguration>
-->

<fcd-export xmlns:xsi="http://www.w3.org/2001/XMLSchema-instance" xsi:noNamespaceSchemaLocation="http://sumo.dlr.de/xsd/fcd_file.xsd">
    <timestep time="0.00">
        <vehicle id="v0" x="5.10" y="-1.60" angle="90.00" type="car" speed="0.00" pos="5.10" lane="street1_0" slope="0.00"/>
    </timestep>
    <timestep time="0.10">
        <vehicle id="v0" x="5.13" y="-1.60" angle="90.00" type="car" speed="0.26" pos="5.13" lane="street1_0" slope="0.00"/>
    </timestep>
    <timestep time="0.20">
        <vehicle id="v0" x="5.18" y="-1.60" angle="90.00" type="car" speed="0.52" pos="5.18" lane="street1_0" slope="0.00"/>
    </timestep>
    <timestep time="0.30">
        <vehicle id="v0" x="5.26" y="-1.60" angle="90.00" type="car" speed="0.78" pos="5.26" lane="street1_0" slope="0.00"/>
    </timestep>
    <timestep time="0.40">
        <vehicle id="v0" x="5.36" y="-1.60" angle="90.00" type="car" speed="1.04" pos="5.36" lane="street1_0" slope="0.00"/>
    </timestep>
    <timestep time="0.50">
        <vehicle id="v0" x="5.49" y="-1.60" angle="90.00" type="car" speed="1.30" pos="5.49" lane="street1_0" slope="0.00"/>
    </timestep>
    <timestep time="0.60">
        <vehicle id="v0" x="5.65" y="-1.60" angle="90.00" type="car" speed="1.56" pos="5.65" lane="street1_0" slope="0.00"/>
    </timestep>
    <timestep time="0.70">
        <vehicle id="v0" x="5.83" y="-1.60" angle="90.00" type="car" speed="1.82" pos="5.83" lane="street1_0" slope="0.00"/>
    </timestep>
    <timestep time="0.80">
        <vehicle id="v0" x="6.04" y="-1.60" angle="90.00" type="car" speed="2.08" pos="6.04" lane="street1_0" slope="0.00"/>
    </timestep>
    <timestep time="0.90">
        <vehicle id="v0" x="6.27" y="-1.60" angle="90.00" type="car" speed="2.34" pos="6.27" lane="street1_0" slope="0.00"/>
    </timestep>
    <timestep time="1.00">
        <vehicle id="v0" x="6.53" y="-1.60" angle="90.00" type="car" speed="2.60" pos="6.53" lane="street1_0" slope="0.00"/>
    </timestep>
    <timestep time="1.10">
        <vehicle id="v0" x="6.82" y="-1.60" angle="90.00" type="car" speed="2.86" pos="6.82" lane="street1_0" slope="0.00"/>
    </timestep>
    <timestep time="1.20">
        <vehicle id="v0" x="7.13" y="-1.60" angle="90.00" type="car" speed="3.12" pos="7.13" lane="street1_0" slope="0.00"/>
    </timestep>
    <timestep time="1.30">
        <vehicle id="v0" x="7.47" y="-1.60" angle="90.00" type="car" speed="3.38" pos="7.47" lane="street1_0" slope="0.00"/>
    </timestep>
    <timestep time="1.40">
        <vehicle id="v0" x="7.83" y="-1.60" angle="90.00" type="car" speed="3.64" pos="7.83" lane="street1_0" slope="0.00"/>
    </timestep>
    <timestep time="1.50">
        <vehicle id="v0" x="8.22" y="-1.60" angle="90.00" type="car" speed="3.90" pos="8.22" lane="street1_0" slope="0.00"/>
    </timestep>
    <timestep time="1.60">
        <vehicle id="v0" x="8.64" y="-1.60" angle="90.00" type="car" speed="4.16" pos="8.64" lane="street1_0" slope="0.00"/>
    </timestep>
    <timestep time="1.70">
        <vehicle id="v0" x="9.08" y="-1.60" angle="90.00" type="car" speed="4.42" pos="9.08" lane="street1_0" slope="0.00"/>
    </timestep>
    <timestep time="1.80">
        <vehicle id="v0" x="9.55" y="-1.60" angle="90.00" type="car" speed="4.68" pos="9.55" lane="street1_0" slope="0.00"/>
    </timestep>
    <timestep time="1.90">
        <vehicle id="v0" x="10.04" y="-1.60" angle="90.00" type="car" speed="4.94" pos="10.04" lane="street1_0" slope="0.00"/>
    </timestep>
    <timestep time="2.00">
        <vehicle id="v0" x="10.56" y="-1.60" angle="90.00" type="car" speed="5.20" pos="10.56" lane="street1_0" slope="0.00"/>
    </timestep>
    <timestep time="2.10">
        <vehicle id="v0" x="11.11" y="-1.60" angle="90.00" type="car" speed="5.46" pos="11.11" lane="street1_0" slope="0.00"/>
    </timestep>
    <timestep time="2.20">
        <vehicle id="v0" x="11.68" y="-1.60" angle="90.00" type="car" speed="5.72" pos="11.68" lane="street1_0" slope="0.00"/>
    </timestep>
    <timestep time="2.30">
        <vehicle id="v0" x="12.28" y="-1.60" angle="90.00" type="car" speed="5.98" pos="12.28" lane="street1_0" slope="0.00"/>
    </timestep>
    <timestep time="2.40">
        <vehicle id="v0" x="12.90" y="-1.60" angle="90.00" type="car" speed="6.24" pos="12.90" lane="street1_0" slope="0.00"/>
        <vehicle id="v1" x="5.10" y="-1.60" angle="90.00" type="car" speed="0.00" pos="5.10" lane="street1_0" slope="0.00"/>
    </timestep>
    <timestep time="2.50">
        <vehicle id="v0" x="13.55" y="-1.60" angle="90.00" type="car" speed="6.50" pos="13.55" lane="street1_0" slope="0.00"/>
        <vehicle id="v1" x="5.13" y="-1.60" angle="90.00" type="car" speed="0.26" pos="5.13" lane="street1_0" slope="0.00"/>
    </timestep>
    <timestep time="2.60">
        <vehicle id="v0" x="14.23" y="-1.60" angle="90.00" type="car" speed="6.76" pos="14.23" lane="street1_0" slope="0.00"/>
        <vehicle id="v1" x="5.18" y="-1.60" angle="90.00" type="car" speed="0.52" pos="5.18" lane="street1_0" slope="0.00"/>
    </timestep>
    <timestep time="2.70">
        <vehicle id="v0" x="14.93" y="-1.60" angle="90.00" type="car" speed="7.02" pos="14.93" lane="street1_0" slope="0.00"/>
        <vehicle id="v1" x="5.26" y="-1.60" angle="90.00" type="car" speed="0.78" pos="5.26" lane="street1_0" slope="0.00"/>
    </timestep>
    <timestep time="2.80">
        <vehicle id="v0" x="15.66" y="-1.60" angle="90.00" type="car" speed="7.28" pos="15.66" lane="street1_0" slope="0.00"/>
        <vehicle id="v1" x="5.36" y="-1.60" angle="90.00" type="car" speed="1.04" pos="5.36" lane="street1_0" slope="0.00"/>
    </timestep>
    <timestep time="2.90">
        <vehicle id="v0" x="16.41" y="-1.60" angle="90.00" type="car" speed="7.54" pos="16.41" lane="street1_0" slope="0.00"/>
        <vehicle id="v1" x="5.49" y="-1.60" angle="90.00" type="car" speed="1.30" pos="5.49" lane="street1_0" slope="0.00"/>
    </timestep>
    <timestep time="3.00">
        <vehicle id="v0" x="17.19" y="-1.60" angle="90.00" type="car" speed="7.80" pos="17.19" lane="street1_0" slope="0.00"/>
        <vehicle id="v1" x="5.65" y="-1.60" angle="90.00" type="car" speed="1.56" pos="5.65" lane="street1_0" slope="0.00"/>
    </timestep>
    <timestep time="3.10">
        <vehicle id="v0" x="18.00" y="-1.60" angle="90.00" type="car" speed="8.06" pos="18.00" lane="street1_0" slope="0.00"/>
        <vehicle id="v1" x="5.83" y="-1.60" angle="90.00" type="car" speed="1.82" pos="5.83" lane="street1_0" slope="0.00"/>
    </timestep>
    <timestep time="3.20">
        <vehicle id="v0" x="18.83" y="-1.60" angle="90.00" type="car" speed="8.32" pos="18.83" lane="street1_0" slope="0.00"/>
        <vehicle id="v1" x="6.04" y="-1.60" angle="90.00" type="car" speed="2.08" pos="6.04" lane="street1_0" slope="0.00"/>
    </timestep>
    <timestep time="3.30">
        <vehicle id="v0" x="19.69" y="-1.60" angle="90.00" type="car" speed="8.58" pos="19.69" lane="street1_0" slope="0.00"/>
        <vehicle id="v1" x="6.27" y="-1.60" angle="90.00" type="car" speed="2.34" pos="6.27" lane="street1_0" slope="0.00"/>
    </timestep>
    <timestep time="3.40">
        <vehicle id="v0" x="20.57" y="-1.60" angle="90.00" type="car" speed="8.84" pos="20.57" lane="street1_0" slope="0.00"/>
        <vehicle id="v1" x="6.53" y="-1.60" angle="90.00" type="car" speed="2.60" pos="6.53" lane="street1_0" slope="0.00"/>
    </timestep>
    <timestep time="3.50">
        <vehicle id="v0" x="21.48" y="-1.60" angle="90.00" type="car" speed="9.10" pos="21.48" lane="street1_0" slope="0.00"/>
        <vehicle id="v1" x="6.82" y="-1.60" angle="90.00" type="car" speed="2.86" pos="6.82" lane="street1_0" slope="0.00"/>
    </timestep>
    <timestep time="3.60">
        <vehicle id="v0" x="22.42" y="-1.60" angle="90.00" type="car" speed="9.36" pos="22.42" lane="street1_0" slope="0.00"/>
        <vehicle id="v1" x="7.13" y="-1.60" angle="90.00" type="car" speed="3.12" pos="7.13" lane="street1_0" slope="0.00"/>
    </timestep>
    <timestep time="3.70">
        <vehicle id="v0" x="23.38" y="-1.60" angle="90.00" type="car" speed="9.62" pos="23.38" lane="street1_0" slope="0.00"/>
        <vehicle id="v1" x="7.47" y="-1.60" angle="90.00" type="car" speed="3.38" pos="7.47" lane="street1_0" slope="0.00"/>
    </timestep>
    <timestep time="3.80">
        <vehicle id="v0" x="24.37" y="-1.60" angle="90.00" type="car" speed="9.88" pos="24.37" lane="street1_0" slope="0.00"/>
        <vehicle id="v1" x="7.83" y="-1.60" angle="90.00" type="car" speed="3.64" pos="7.83" lane="street1_0" slope="0.00"/>
    </timestep>
    <timestep time="3.90">
        <vehicle id="v0" x="25.38" y="-1.60" angle="90.00" type="car" speed="10.14" pos="25.38" lane="street1_0" slope="0.00"/>
        <vehicle id="v1" x="8.22" y="-1.60" angle="90.00" type="car" speed="3.90" pos="8.22" lane="street1_0" slope="0.00"/>
    </timestep>
    <timestep time="4.00">
        <vehicle id="v0" x="26.42" y="-1.60" angle="90.00" type="car" speed="10.40" pos="26.42" lane="street1_0" slope="0.00"/>
        <vehicle id="v1" x="8.64" y="-1.60" angle="90.00" type="car" speed="4.16" pos="8.64" lane="street1_0" slope="0.00"/>
    </timestep>
    <timestep time="4.10">
        <vehicle id="v0" x="27.49" y="-1.60" angle="90.00" type="car" speed="10.66" pos="27.49" lane="street1_0" slope="0.00"/>
        <vehicle id="v1" x="9.08" y="-1.60" angle="90.00" type="car" speed="4.42" pos="9.08" lane="street1_0" slope="0.00"/>
    </timestep>
    <timestep time="4.20">
        <vehicle id="v0" x="28.58" y="-1.60" angle="90.00" type="car" speed="10.92" pos="28.58" lane="street1_0" slope="0.00"/>
        <vehicle id="v1" x="9.55" y="-1.60" angle="90.00" type="car" speed="4.68" pos="9.55" lane="street1_0" slope="0.00"/>
    </timestep>
    <timestep time="4.30">
        <vehicle id="v0" x="29.70" y="-1.60" angle="90.00" type="car" speed="11.18" pos="29.70" lane="street1_0" slope="0.00"/>
        <vehicle id="v1" x="10.04" y="-1.60" angle="90.00" type="car" speed="4.94" pos="10.04" lane="street1_0" slope="0.00"/>
    </timestep>
    <timestep time="4.40">
        <vehicle id="v0" x="30.84" y="-1.60" angle="90.00" type="car" speed="11.44" pos="30.84" lane="street1_0" slope="0.00"/>
        <vehicle id="v1" x="10.56" y="-1.60" angle="90.00" type="car" speed="5.20" pos="10.56" lane="street1_0" slope="0.00"/>
    </timestep>
    <timestep time="4.50">
        <vehicle id="v0" x="32.01" y="-1.60" angle="90.00" type="car" speed="11.70" pos="32.01" lane="street1_0" slope="0.00"/>
        <vehicle id="v1" x="11.11" y="-1.60" angle="90.00" type="car" speed="5.46" pos="11.11" lane="street1_0" slope="0.00"/>
    </timestep>
    <timestep time="4.60">
        <vehicle id="v0" x="33.21" y="-1.60" angle="90.00" type="car" speed="11.96" pos="33.21" lane="street1_0" slope="0.00"/>
        <vehicle id="v1" x="11.68" y="-1.60" angle="90.00" type="car" speed="5.72" pos="11.68" lane="street1_0" slope="0.00"/>
    </timestep>
    <timestep time="4.70">
        <vehicle id="v0" x="34.43" y="-1.60" angle="90.00" type="car" speed="12.22" pos="34.43" lane="street1_0" slope="0.00"/>
        <vehicle id="v1" x="12.28" y="-1.60" angle="90.00" type="car" speed="5.98" pos="12.28" lane="street1_0" slope="0.00"/>
    </timestep>
    <timestep time="4.80">
        <vehicle id="v0" x="35.68" y="-1.60" angle="90.00" type="car" speed="12.48" pos="35.68" lane="street1_0" slope="0.00"/>
        <vehicle id="v1" x="12.90" y="-1.60" angle="90.00" type="car" speed="6.24" pos="12.90" lane="street1_0" slope="0.00"/>
        <vehicle id="v2" x="5.10" y="-1.60" angle="90.00" type="car" speed="0.00" pos="5.10" lane="street1_0" slope="0.00"/>
    </timestep>
    <timestep time="4.90">
        <vehicle id="v0" x="36.95" y="-1.60" angle="90.00" type="car" speed="12.74" pos="36.95" lane="street1_0" slope="0.00"/>
        <vehicle id="v1" x="13.55" y="-1.60" angle="90.00" type="car" speed="6.50" pos="13.55" lane="street1_0" slope="0.00"/>
        <vehicle id="v2" x="5.13" y="-1.60" angle="90.00" type="car" speed="0.26" pos="5.13" lane="street1_0" slope="0.00"/>
    </timestep>
    <timestep time="5.00">
        <vehicle id="v0" x="38.25" y="-1.60" angle="90.00" type="car" speed="13.00" pos="38.25" lane="street1_0" slope="0.00"/>
        <vehicle id="v1" x="14.23" y="-1.60" angle="90.00" type="car" speed="6.76" pos="14.23" lane="street1_0" slope="0.00"/>
        <vehicle id="v2" x="5.18" y="-1.60" angle="90.00" type="car" speed="0.52" pos="5.18" lane="street1_0" slope="0.00"/>
    </timestep>
    <timestep time="5.10">
        <vehicle id="v0" x="39.58" y="-1.60" angle="90.00" type="car" speed="13.26" pos="39.58" lane="street1_0" slope="0.00"/>
        <vehicle id="v1" x="14.93" y="-1.60" angle="90.00" type="car" speed="7.02" pos="14.93" lane="street1_0" slope="0.00"/>
        <vehicle id="v2" x="5.26" y="-1.60" angle="90.00" type="car" speed="0.78" pos="5.26" lane="street1_0" slope="0.00"/>
    </timestep>
    <timestep time="5.20">
        <vehicle id="v0" x="40.93" y="-1.60" angle="90.00" type="car" speed="13.52" pos="40.93" lane="street1_0" slope="0.00"/>
        <vehicle id="v1" x="15.66" y="-1.60" angle="90.00" type="car" speed="7.28" pos="15.66" lane="street1_0" slope="0.00"/>
        <vehicle id="v2" x="5.36" y="-1.60" angle="90.00" type="car" speed="1.04" pos="5.36" lane="street1_0" slope="0.00"/>
    </timestep>
    <timestep time="5.30">
        <vehicle id="v0" x="42.31" y="-1.60" angle="90.00" type="car" speed="13.78" pos="42.31" lane="street1_0" slope="0.00"/>
        <vehicle id="v1" x="16.41" y="-1.60" angle="90.00" type="car" speed="7.54" pos="16.41" lane="street1_0" slope="0.00"/>
        <vehicle id="v2" x="5.49" y="-1.60" angle="90.00" type="car" speed="1.30" pos="5.49" lane="street1_0" slope="0.00"/>
    </timestep>
    <timestep time="5.40">
        <vehicle id="v0" x="43.71" y="-1.60" angle="90.00" type="car" speed="14.04" pos="43.71" lane="street1_0" slope="0.00"/>
        <vehicle id="v1" x="17.19" y="-1.60" angle="90.00" type="car" speed="7.80" pos="17.19" lane="street1_0" slope="0.00"/>
        <vehicle id="v2" x="5.65" y="-1.60" angle="90.00" type="car" speed="1.56" pos="5.65" lane="street1_0" slope="0.00"/>
    </timestep>
    <timestep time="5.50">
        <vehicle id="v0" x="45.14" y="-1.60" angle="90.00" type="car" speed="14.30" pos="45.14" lane="street1_0" slope="0.00"/>
        <vehicle id="v1" x="18.00" y="-1.60" angle="90.00" type="car" speed="8.06" pos="18.00" lane="street1_0" slope="0.00"/>
        <vehicle id="v2" x="5.83" y="-1.60" angle="90.00" type="car" speed="1.82" pos="5.83" lane="street1_0" slope="0.00"/>
    </timestep>
    <timestep time="5.60">
        <vehicle id="v0" x="46.60" y="-1.60" angle="90.00" type="car" speed="14.56" pos="46.60" lane="street1_0" slope="0.00"/>
        <vehicle id="v1" x="18.83" y="-1.60" angle="90.00" type="car" speed="8.32" pos="18.83" lane="street1_0" slope="0.00"/>
        <vehicle id="v2" x="6.04" y="-1.60" angle="90.00" type="car" speed="2.08" pos="6.04" lane="street1_0" slope="0.00"/>
    </timestep>
    <timestep time="5.70">
        <vehicle id="v0" x="48.08" y="-1.60" angle="90.00" type="car" speed="14.82" pos="48.08" lane="street1_0" slope="0.00"/>
        <vehicle id="v1" x="19.69" y="-1.60" angle="90.00" type="car" speed="8.58" pos="19.69" lane="street1_0" slope="0.00"/>
        <vehicle id="v2" x="6.27" y="-1.60" angle="90.00" type="car" speed="2.34" pos="6.27" lane="street1_0" slope="0.00"/>
    </timestep>
    <timestep time="5.80">
        <vehicle id="v0" x="49.59" y="-1.60" angle="90.00" type="car" speed="15.08" pos="49.59" lane="street1_0" slope="0.00"/>
        <vehicle id="v1" x="20.57" y="-1.60" angle="90.00" type="car" speed="8.84" pos="20.57" lane="street1_0" slope="0.00"/>
        <vehicle id="v2" x="6.53" y="-1.60" angle="90.00" type="car" speed="2.60" pos="6.53" lane="street1_0" slope="0.00"/>
    </timestep>
    <timestep time="5.90">
        <vehicle id="v0" x="51.12" y="-1.60" angle="90.00" type="car" speed="15.34" pos="51.12" lane="street1_0" slope="0.00"/>
        <vehicle id="v1" x="21.48" y="-1.60" angle="90.00" type="car" speed="9.10" pos="21.48" lane="street1_0" slope="0.00"/>
        <vehicle id="v2" x="6.82" y="-1.60" angle="90.00" type="car" speed="2.86" pos="6.82" lane="street1_0" slope="0.00"/>
    </timestep>
    <timestep time="6.00">
        <vehicle id="v0" x="52.68" y="-1.60" angle="90.00" type="car" speed="15.60" pos="52.68" lane="street1_0" slope="0.00"/>
        <vehicle id="v1" x="22.42" y="-1.60" angle="90.00" type="car" speed="9.36" pos="22.42" lane="street1_0" slope="0.00"/>
        <vehicle id="v2" x="7.13" y="-1.60" angle="90.00" type="car" speed="3.12" pos="7.13" lane="street1_0" slope="0.00"/>
    </timestep>
    <timestep time="6.10">
        <vehicle id="v0" x="54.27" y="-1.60" angle="90.00" type="car" speed="15.86" pos="54.27" lane="street1_0" slope="0.00"/>
        <vehicle id="v1" x="23.38" y="-1.60" angle="90.00" type="car" speed="9.62" pos="23.38" lane="street1_0" slope="0.00"/>
        <vehicle id="v2" x="7.47" y="-1.60" angle="90.00" type="car" speed="3.38" pos="7.47" lane="street1_0" slope="0.00"/>
    </timestep>
    <timestep time="6.20">
        <vehicle id="v0" x="55.88" y="-1.60" angle="90.00" type="car" speed="16.12" pos="55.88" lane="street1_0" slope="0.00"/>
        <vehicle id="v1" x="24.37" y="-1.60" angle="90.00" type="car" speed="9.88" pos="24.37" lane="street1_0" slope="0.00"/>
        <vehicle id="v2" x="7.83" y="-1.60" angle="90.00" type="car" speed="3.64" pos="7.83" lane="street1_0" slope="0.00"/>
    </timestep>
    <timestep time="6.30">
        <vehicle id="v0" x="57.52" y="-1.60" angle="90.00" type="car" speed="16.38" pos="57.52" lane="street1_0" slope="0.00"/>
        <vehicle id="v1" x="25.38" y="-1.60" angle="90.00" type="car" speed="10.14" pos="25.38" lane="street1_0" slope="0.00"/>
        <vehicle id="v2" x="8.22" y="-1.60" angle="90.00" type="car" speed="3.90" pos="8.22" lane="street1_0" slope="0.00"/>
    </timestep>
    <timestep time="6.40">
        <vehicle id="v0" x="59.18" y="-1.60" angle="90.00" type="car" speed="16.64" pos="59.18" lane="street1_0" slope="0.00"/>
        <vehicle id="v1" x="26.42" y="-1.60" angle="90.00" type="car" speed="10.40" pos="26.42" lane="street1_0" slope="0.00"/>
        <vehicle id="v2" x="8.64" y="-1.60" angle="90.00" type="car" speed="4.16" pos="8.64" lane="street1_0" slope="0.00"/>
    </timestep>
    <timestep time="6.50">
        <vehicle id="v0" x="60.87" y="-1.60" angle="90.00" type="car" speed="16.90" pos="60.87" lane="street1_0" slope="0.00"/>
        <vehicle id="v1" x="27.49" y="-1.60" angle="90.00" type="car" speed="10.66" pos="27.49" lane="street1_0" slope="0.00"/>
        <vehicle id="v2" x="9.08" y="-1.60" angle="90.00" type="car" speed="4.42" pos="9.08" lane="street1_0" slope="0.00"/>
    </timestep>
    <timestep time="6.60">
        <vehicle id="v0" x="62.59" y="-1.60" angle="90.00" type="car" speed="17.16" pos="62.59" lane="street1_0" slope="0.00"/>
        <vehicle id="v1" x="28.58" y="-1.60" angle="90.00" type="car" speed="10.92" pos="28.58" lane="street1_0" slope="0.00"/>
        <vehicle id="v2" x="9.55" y="-1.60" angle="90.00" type="car" speed="4.68" pos="9.55" lane="street1_0" slope="0.00"/>
    </timestep>
    <timestep time="6.70">
        <vehicle id="v0" x="64.33" y="-1.60" angle="90.00" type="car" speed="17.42" pos="64.33" lane="street1_0" slope="0.00"/>
        <vehicle id="v1" x="29.70" y="-1.60" angle="90.00" type="car" speed="11.18" pos="29.70" lane="street1_0" slope="0.00"/>
        <vehicle id="v2" x="10.04" y="-1.60" angle="90.00" type="car" speed="4.94" pos="10.04" lane="street1_0" slope="0.00"/>
    </timestep>
    <timestep time="6.80">
        <vehicle id="v0" x="66.10" y="-1.60" angle="90.00" type="car" speed="17.68" pos="66.10" lane="street1_0" slope="0.00"/>
        <vehicle id="v1" x="30.84" y="-1.60" angle="90.00" type="car" speed="11.44" pos="30.84" lane="street1_0" slope="0.00"/>
        <vehicle id="v2" x="10.56" y="-1.60" angle="90.00" type="car" speed="5.20" pos="10.56" lane="street1_0" slope="0.00"/>
    </timestep>
    <timestep time="6.90">
        <vehicle id="v0" x="67.89" y="-1.60" angle="90.00" type="car" speed="17.94" pos="67.89" lane="street1_0" slope="0.00"/>
        <vehicle id="v1" x="32.01" y="-1.60" angle="90.00" type="car" speed="11.70" pos="32.01" lane="street1_0" slope="0.00"/>
        <vehicle id="v2" x="11.11" y="-1.60" angle="90.00" type="car" speed="5.46" pos="11.11" lane="street1_0" slope="0.00"/>
    </timestep>
    <timestep time="7.00">
        <vehicle id="v0" x="69.71" y="-1.60" angle="90.00" type="car" speed="18.20" pos="69.71" lane="street1_0" slope="0.00"/>
        <vehicle id="v1" x="33.21" y="-1.60" angle="90.00" type="car" speed="11.96" pos="33.21" lane="street1_0" slope="0.00"/>
        <vehicle id="v2" x="11.68" y="-1.60" angle="90.00" type="car" speed="5.72" pos="11.68" lane="street1_0" slope="0.00"/>
    </timestep>
    <timestep time="7.10">
        <vehicle id="v0" x="71.56" y="-1.60" angle="90.00" type="car" speed="18.46" pos="71.56" lane="street1_0" slope="0.00"/>
        <vehicle id="v1" x="34.43" y="-1.60" angle="90.00" type="car" speed="12.22" pos="34.43" lane="street1_0" slope="0.00"/>
        <vehicle id="v2" x="12.28" y="-1.60" angle="90.00" type="car" speed="5.98" pos="12.28" lane="street1_0" slope="0.00"/>
    </timestep>
    <timestep time="7.20">
        <vehicle id="v0" x="73.43" y="-1.60" angle="90.00" type="car" speed="18.72" pos="73.43" lane="street1_0" slope="0.00"/>
        <vehicle id="v1" x="35.68" y="-1.60" angle="90.00" type="car" speed="12.48" pos="35.68" lane="street1_0" slope="0.00"/>
        <vehicle id="v2" x="12.90" y="-1.60" angle="90.00" type="car" speed="6.24" pos="12.90" lane="street1_0" slope="0.00"/>
    </timestep>
    <timestep time="7.30">
        <vehicle id="v0" x="75.33" y="-1.60" angle="90.00" type="car" speed="18.98" pos="75.33" lane="street1_0" slope="0.00"/>
        <vehicle id="v1" x="36.95" y="-1.60" angle="90.00" type="car" speed="12.74" pos="36.95" lane="street1_0" slope="0.00"/>
        <vehicle id="v2" x="13.55" y="-1.60" angle="90.00" type="car" speed="6.50" pos="13.55" lane="street1_0" slope="0.00"/>
    </timestep>
    <timestep time="7.40">
        <vehicle id="v0" x="77.25" y="-1.60" angle="90.00" type="car" speed="19.24" pos="77.25" lane="street1_0" slope="0.00"/>
        <vehicle id="v1" x="38.25" y="-1.60" angle="90.00" type="car" speed="13.00" pos="38.25" lane="street1_0" slope="0.00"/>
        <vehicle id="v2" x="14.23" y="-1.60" angle="90.00" type="car" speed="6.76" pos="14.23" lane="street1_0" slope="0.00"/>
    </timestep>
    <timestep time="7.50">
        <vehicle id="v0" x="79.20" y="-1.60" angle="90.00" type="car" speed="19.50" pos="79.20" lane="street1_0" slope="0.00"/>
        <vehicle id="v1" x="39.58" y="-1.60" angle="90.00" type="car" speed="13.26" pos="39.58" lane="street1_0" slope="0.00"/>
        <vehicle id="v2" x="14.93" y="-1.60" angle="90.00" type="car" speed="7.02" pos="14.93" lane="street1_0" slope="0.00"/>
    </timestep>
    <timestep time="7.60">
        <vehicle id="v0" x="81.18" y="-1.60" angle="90.00" type="car" speed="19.76" pos="81.18" lane="street1_0" slope="0.00"/>
        <vehicle id="v1" x="40.93" y="-1.60" angle="90.00" type="car" speed="13.52" pos="40.93" lane="street1_0" slope="0.00"/>
        <vehicle id="v2" x="15.66" y="-1.60" angle="90.00" type="car" speed="7.28" pos="15.66" lane="street1_0" slope="0.00"/>
    </timestep>
    <timestep time="7.70">
        <vehicle id="v0" x="83.18" y="-1.60" angle="90.00" type="car" speed="20.02" pos="83.18" lane="street1_0" slope="0.00"/>
        <vehicle id="v1" x="42.31" y="-1.60" angle="90.00" type="car" speed="13.78" pos="42.31" lane="street1_0" slope="0.00"/>
        <vehicle id="v2" x="16.41" y="-1.60" angle="90.00" type="car" speed="7.54" pos="16.41" lane="street1_0" slope="0.00"/>
    </timestep>
    <timestep time="7.80">
        <vehicle id="v0" x="85.21" y="-1.60" angle="90.00" type="car" speed="20.28" pos="85.21" lane="street1_0" slope="0.00"/>
        <vehicle id="v1" x="43.71" y="-1.60" angle="90.00" type="car" speed="14.04" pos="43.71" lane="street1_0" slope="0.00"/>
        <vehicle id="v2" x="17.19" y="-1.60" angle="90.00" type="car" speed="7.80" pos="17.19" lane="street1_0" slope="0.00"/>
    </timestep>
    <timestep time="7.90">
        <vehicle id="v0" x="87.26" y="-1.60" angle="90.00" type="car" speed="20.54" pos="87.26" lane="street1_0" slope="0.00"/>
        <vehicle id="v1" x="45.14" y="-1.60" angle="90.00" type="car" speed="14.30" pos="45.14" lane="street1_0" slope="0.00"/>
        <vehicle id="v2" x="18.00" y="-1.60" angle="90.00" type="car" speed="8.06" pos="18.00" lane="street1_0" slope="0.00"/>
    </timestep>
    <timestep time="8.00">
        <vehicle id="v0" x="89.34" y="-1.60" angle="90.00" type="car" speed="20.80" pos="89.34" lane="street1_0" slope="0.00"/>
        <vehicle id="v1" x="46.60" y="-1.60" angle="90.00" type="car" speed="14.56" pos="46.60" lane="street1_0" slope="0.00"/>
        <vehicle id="v2" x="18.83" y="-1.60" angle="90.00" type="car" speed="8.32" pos="18.83" lane="street1_0" slope="0.00"/>
    </timestep>
    <timestep time="8.10">
        <vehicle id="v0" x="91.45" y="-1.60" angle="90.00" type="car" speed="21.06" pos="91.45" lane="street1_0" slope="0.00"/>
        <vehicle id="v1" x="48.08" y="-1.60" angle="90.00" type="car" speed="14.82" pos="48.08" lane="street1_0" slope="0.00"/>
        <vehicle id="v2" x="19.69" y="-1.60" angle="90.00" type="car" speed="8.58" pos="19.69" lane="street1_0" slope="0.00"/>
    </timestep>
    <timestep time="8.20">
        <vehicle id="v0" x="93.58" y="-1.60" angle="90.00" type="car" speed="21.32" pos="93.58" lane="street1_0" slope="0.00"/>
        <vehicle id="v1" x="49.59" y="-1.60" angle="90.00" type="car" speed="15.08" pos="49.59" lane="street1_0" slope="0.00"/>
        <vehicle id="v2" x="20.57" y="-1.60" angle="90.00" type="car" speed="8.84" pos="20.57" lane="street1_0" slope="0.00"/>
    </timestep>
    <timestep time="8.30">
        <vehicle id="v0" x="95.74" y="-1.60" angle="90.00" type="car" speed="21.58" pos="95.74" lane="street1_0" slope="0.00"/>
        <vehicle id="v1" x="51.12" y="-1.60" angle="90.00" type="car" speed="15.34" pos="51.12" lane="street1_0" slope="0.00"/>
        <vehicle id="v2" x="21.48" y="-1.60" angle="90.00" type="car" speed="9.10" pos="21.48" lane="street1_0" slope="0.00"/>
    </timestep>
    <timestep time="8.40">
        <vehicle id="v0" x="97.92" y="-1.60" angle="90.00" type="car" speed="21.84" pos="97.92" lane="street1_0" slope="0.00"/>
        <vehicle id="v1" x="52.68" y="-1.60" angle="90.00" type="car" speed="15.60" pos="52.68" lane="street1_0" slope="0.00"/>
        <vehicle id="v2" x="22.42" y="-1.60" angle="90.00" type="car" speed="9.36" pos="22.42" lane="street1_0" slope="0.00"/>
    </timestep>
    <timestep time="8.50">
        <vehicle id="v0" x="100.13" y="-1.60" angle="90.00" type="car" speed="22.10" pos="100.13" lane="street1_0" slope="0.00"/>
        <vehicle id="v1" x="54.27" y="-1.60" angle="90.00" type="car" speed="15.86" pos="54.27" lane="street1_0" slope="0.00"/>
        <vehicle id="v2" x="23.38" y="-1.60" angle="90.00" type="car" speed="9.62" pos="23.38" lane="street1_0" slope="0.00"/>
    </timestep>
    <timestep time="8.60">
        <vehicle id="v0" x="102.37" y="-1.60" angle="90.00" type="car" speed="22.36" pos="102.37" lane="street1_0" slope="0.00"/>
        <vehicle id="v1" x="55.88" y="-1.60" angle="90.00" type="car" speed="16.12" pos="55.88" lane="street1_0" slope="0.00"/>
        <vehicle id="v2" x="24.37" y="-1.60" angle="90.00" type="car" speed="9.88" pos="24.37" lane="street1_0" slope="0.00"/>
    </timestep>
    <timestep time="8.70">
        <vehicle id="v0" x="104.63" y="-1.60" angle="90.00" type="car" speed="22.62" pos="104.63" lane="street1_0" slope="0.00"/>
        <vehicle id="v1" x="57.52" y="-1.60" angle="90.00" type="car" speed="16.38" pos="57.52" lane="street1_0" slope="0.00"/>
        <vehicle id="v2" x="25.38" y="-1.60" angle="90.00" type="car" speed="10.14" pos="25.38" lane="street1_0" slope="0.00"/>
    </timestep>
    <timestep time="8.80">
        <vehicle id="v0" x="106.92" y="-1.60" angle="90.00" type="car" speed="22.88" pos="106.92" lane="street1_0" slope="0.00"/>
        <vehicle id="v1" x="59.18" y="-1.60" angle="90.00" type="car" speed="16.64" pos="59.18" lane="street1_0" slope="0.00"/>
        <vehicle id="v2" x="26.42" y="-1.60" angle="90.00" type="car" speed="10.40" pos="26.42" lane="street1_0" slope="0.00"/>
    </timestep>
    <timestep time="8.90">
        <vehicle id="v0" x="109.23" y="-1.60" angle="90.00" type="car" speed="23.14" pos="109.23" lane="street1_0" slope="0.00"/>
        <vehicle id="v1" x="60.87" y="-1.60" angle="90.00" type="car" speed="16.90" pos="60.87" lane="street1_0" slope="0.00"/>
        <vehicle id="v2" x="27.49" y="-1.60" angle="90.00" type="car" speed="10.66" pos="27.49" lane="street1_0" slope="0.00"/>