<?xml version="1.0" encoding="UTF-8"?>

<!-- generated on 2026-03-05T00:51:45.756634+01:00 by Eclipse SUMO GUI 1.26.0
<sumoConfiguration xmlns:xsi="http://www.w3.org/2001/XMLSchema-instance" xsi:noNamespaceSchemaLocation="http://sumo.dlr.de/xsd/sumoConfiguration.xsd">

    <input>
        <net-file value="/home/tassany/Documents/Codes/HelloWorld_SUMONS3/sumo/grid.net.xml"/>
        <route-files value="/home/tassany/Documents/Codes/HelloWorld_SUMONS3/sumo/routes_30v.rou.xml"/>
        <additional-files value="/home/tassany/Documents/Codes/HelloWorld_SUMONS3/sumo/vtypes.add.xml"/>
    </input>

    <output>
        <fcd-output value="/home/tassany/Documents/Codes/HelloWorld_SUMONS3/sumo/fcd_30v.xml"/>
    </output>

    <time>
        <begin value="0"/>
        <end value="100"/>
        <step-length value="0.1"/>
    </time>

</sumoConfiguration>
-->

<fcd-export xmlns:xsi="http://www.w3.org/2001/XMLSchema-instance" xsi:noNamespaceSchemaLocation="http://sumo.dlr.de/xsd/fcd_file.xsd">
    <timestep time="0.00">
        <vehicle id="0" x="2198.40" y="2788.20" angle="180.00" type="car" speed="0.00" pos="4.60" lane="G9G8_0" slope="0.00"/>
    </timestep>
    <timestep time="0.10">
        <vehicle id="0" x="2198.40" y="2788.18" angle="180.00" type="car" speed="0.20" pos="4.62" lane="G9G8_0" slope="0.00"/>
    </timestep>
    <timestep time="0.20">
        <vehicle id="0" x="2198.40" y="2788.14" angle="180.00" type="car" speed="0.40" pos="4.66" lane="G9G8_0" slope="0.00"/>
    </timestep>
    <timestep time="0.30">
        <vehicle id="0" x="2198.40" y="2788.08" angle="180.00" type="car" speed="0.60" pos="4.72" lane="G9G8_0" slope="0.00"/>
    </timestep>
    <timestep time="0.40">
        <vehicle id="0" x="2198.40" y="2788.00" angle="180.00" type="car" speed="0.80" pos="4.80" lane="G9G8_0" slope="0.00"/>
    </timestep>
    <timestep time="0.50">
        <vehicle id="0" x="2198.40" y="2787.90" angle="180.00" type="car" speed="1.00" pos="4.90" lane="G9G8_0" slope="0.00"/>
    </timestep>
    <timestep time="0.60">
        <vehicle id="0" x="2198.40" y="2787.78" angle="180.00" type="car" speed="1.20" pos="5.02" lane="G9G8_0" slope="0.00"/>
    </timestep>
    <timestep time="0.70">
        <vehicle id="0" x="2198.40" y="2787.64" angle="180.00" type="car" speed="1.40" pos="5.16" lane="G9G8_0" slope="0.00"/>
    </timestep>
    <timestep time="0.80">
        <vehicle id="0" x="2198.40" y="2787.48" angle="180.00" type="car" speed="1.60" pos="5.32" lane="G9G8_0" slope="0.00"/>
    </timestep>
    <timestep time="0.90">
        <vehicle id="0" x="2198.40" y="2787.30" angle="180.00" type="car" speed="1.80" pos="5.50" lane="G9G8_0" slope="0.00"/>
    </timestep>
    <timestep time="1.00">
        <vehicle id="0" x="2198.40" y="2787.10" angle="180.00" type="car" speed="2.00" pos="5.70" lane="G9G8_0" slope="0.00"/>
    </timestep>
    <timestep time="1.10">
        <vehicle id="0" x="2198.40" y="2786.88" angle="180.00" type="car" speed="2.20" pos="5.92" lane="G9G8_0" slope="0.00"/>
    </timestep>
    <timestep time="1.20">
        <vehicle id="0" x="2198.40" y="2786.64" angle="180.00" type="car" speed="2.40" pos="6.16" lane="G9G8_0" slope="0.00"/>
    </timestep>
    <timestep time="1.30">
        <vehicle id="0" x="2198.40" y="2786.38" angle="180.00" type="car" speed="2.60" pos="6.42" lane="G9G8_0" slope="0.00"/>
    </timestep>
    <timestep time="1.40">
        <vehicle id="0" x="2198.40" y="2786.10" angle="180.00" type="car" speed="2.80" pos="6.70" lane="G9G8_0" slope="0.00"/>
    </timestep>
    <timestep time="1.50">
        <vehicle id="0" x="2198.40" y="2785.80" angle="180.00" type="car" speed="3.00" pos="7.00" lane="G9G8_0" slope="0.00"/>
    </timestep>
    <timestep time="1.60">
        <vehicle id="0" x="2198.40" y="2785.48" angle="180.00" type="car" speed="3.20" pos="7.32" lane="G9G8_0" slope="0.00"/>
    </timestep>
    <timestep time="1.70">
        <vehicle id="0" x="2198.40" y="2785.14" angle="180.00" type="car" speed="3.40" pos="7.66" lane="G9G8_0" slope="0.00"/>
    </timestep>
    <timestep time="1.80">
        <vehicle id="0" x="2198.40" y="2784.78" angle="180.00" type="car" speed="3.60" pos="8.02" lane="G9G8_0" slope="0.00"/>
    </timestep>
    <timestep time="1.90">
        <vehicle id="0" x="2198.40" y="2784.40" angle="180.00" type="car" speed="3.80" pos="8.40" lane="G9G8_0" slope="0.00"/>
    </timestep>
    <timestep time="2.00">
        <vehicle id="0" x="2198.40" y="2784.00" angle="180.00" type="car" speed="4.00" pos="8.80" lane="G9G8_0" slope="0.00"/>
    </timestep>
    <timestep time="2.10">
        <vehicle id="0" x="2198.40" y="2783.58" angle="180.00" type="car" speed="4.20" pos="9.22" lane="G9G8_0" slope="0.00"/>
    </timestep>
    <timestep time="2.20">
        <vehicle id="0" x="2198.40" y="2783.14" angle="180.00" type="car" speed="4.40" pos="9.66" lane="G9G8_0" slope="0.00"/>
    </timestep>
    <timestep time="2.30">
        <vehicle id="0" x="2198.40" y="2782.68" angle="180.00" type="car" speed="4.60" pos="10.12" lane="G9G8_0" slope="0.00"/>
    </timestep>
    <timestep time="2.40">
        <vehicle id="0" x="2198.40" y="2782.20" angle="180.00" type="car" speed="4.80" pos="10.60" lane="G9G8_0" slope="0.00"/>
    </timestep>
    <timestep time="2.50">
        <vehicle id="0" x="2198.40" y="2781.70" angle="180.00" type="car" speed="5.00" pos="11.10" lane="G9G8_0" slope="0.00"/>
    </timestep>
    <timestep time="2.60">
        <vehicle id="0" x="2198.40" y="2781.18" angle="180.00" type="car" speed="5.20" pos="11.62" lane="G9G8_0" slope="0.00"/>
    </timestep>
    <timestep time="2.70">
        <vehicle id="0" x="2198.40" y="2780.64" angle="180.00" type="car" speed="5.40" pos="12.16" lane="G9G8_0" slope="0.00"/>
    </timestep>
    <timestep time="2.80">
        <vehicle id="0" x="2198.40" y="2780.08" angle="180.00" type="car" speed="5.60" pos="12.72" lane="G9G8_0" slope="0.00"/>
    </timestep>
    <timestep time="2.90">
        <vehicle id="0" x="2198.40" y="2779.50" angle="180.00" type="car" speed="5.80" pos="13.30" lane="G9G8_0" slope="0.00"/>
    </timestep>
    <timestep time="3.00">
        <vehicle id="0" x="2198.40" y="2778.90" angle="180.00" type="car" speed="6.00" pos="13.90" lane="G9G8_0" slope="0.00"/>
    </timestep>
    <timestep time="3.10">
        <vehicle id="0" x="2198.40" y="2778.28" angle="180.00" type="car" speed="6.20" pos="14.52" lane="G9G8_0" slope="0.00"/>
    </timestep>
    <timestep time="3.20">
        <vehicle id="0" x="2198.40" y="2777.64" angle="180.00" type="car" speed="6.40" pos="15.16" lane="G9G8_0" slope="0.00"/>
    </timestep>
    <timestep time="3.30">
        <vehicle id="0" x="2198.40" y="2776.98" angle="180.00" type="car" speed="6.60" pos="15.82" lane="G9G8_0" slope="0.00"/>
    </timestep>
    <timestep time="3.40">
        <vehicle id="0" x="2198.40" y="2776.30" angle="180.00" type="car" speed="6.80" pos="16.50" lane="G9G8_0" slope="0.00"/>
        <vehicle id="1" x="1588.20" y="1201.60" angle="270.00" type="car" speed="0.00" pos="4.60" lane="D1C1_0" slope="0.00"/>
    </timestep>
    <timestep time="3.50">
        <vehicle id="0" x="2198.40" y="2775.60" angle="180.00" type="car" speed="7.00" pos="17.20" lane="G9G8_0" slope="0.00"/>
        <vehicle id="1" x="1588.18" y="1201.60" angle="270.00" type="car" speed="0.20" pos="4.62" lane="D1C1_0" slope="0.00"/>
    </timestep>
    <timestep time="3.60">
        <vehicle id="0" x="2198.40" y="2774.88" angle="180.00" type="car" speed="7.20" pos="17.92" lane="G9G8_0" slope="0.00"/>
        <vehicle id="1" x="1588.14" y="1201.60" angle="270.00" type="car" speed="0.40" pos="4.66" lane="D1C1_0" slope="0.00"/>
    </timestep>
    <timestep time="3.70">
        <vehicle id="0" x="2198.40" y="2774.14" angle="180.00" type="car" speed="7.40" pos="18.66" lane="G9G8_0" slope="0.00"/>
        <vehicle id="1" x="1588.08" y="1201.60" angle="270.00" type="car" speed="0.60" pos="4.72" lane="D1C1_0" slope="0.00"/>
    </timestep>
    <timestep time="3.80">
        <vehicle id="0" x="2198.40" y="2773.38" angle="180.00" type="car" speed="7.60" pos="19.42" lane="G9G8_0" slope="0.00"/>
        <vehicle id="1" x="1588.00" y="1201.60" angle="270.00" type="car" speed="0.80" pos="4.80" lane="D1C1_0" slope="0.00"/>
    </timestep>
    <timestep time="3.90">
        <vehicle id="0" x="2198.40" y="2772.60" angle="180.00" type="car" speed="7.80" pos="20.20" lane="G9G8_0" slope="0.00"/>
        <vehicle id="1" x="1587.90" y="1201.60" angle="270.00" type="car" speed="1.00" pos="4.90" lane="D1C1_0" slope="0.00"/>
    </timestep>
    <timestep time="4.00">
        <vehicle id="0" x="2198.40" y="2771.80" angle="180.00" type="car" speed="8.00" pos="21.00" lane="G9G8_0" slope="0.00"/>
        <vehicle id="1" x="1587.78" y="1201.60" angle="270.00" type="car" speed="1.20" pos="5.02" lane="D1C1_0" slope="0.00"/>
    </timestep>
    <timestep time="4.10">
        <vehicle id="0" x="2198.40" y="2770.98" angle="180.00" type="car" speed="8.20" pos="21.82" lane="G9G8_0" slope="0.00"/>
        <vehicle id="1" x="1587.64" y="1201.60" angle="270.00" type="car" speed="1.40" pos="5.16" lane="D1C1_0" slope="0.00"/>
    </timestep>
    <timestep time="4.20">
        <vehicle id="0" x="2198.40" y="2770.14" angle="180.00" type="car" speed="8.40" pos="22.66" lane="G9G8_0" slope="0.00"/>
        <vehicle id="1" x="1587.48" y="1201.60" angle="270.00" type="car" speed="1.60" pos="5.32" lane="D1C1_0" slope="0.00"/>
    </timestep>
    <timestep time="4.30">
        <vehicle id="0" x="2198.40" y="2769.28" angle="180.00" type="car" speed="8.60" pos="23.52" lane="G9G8_0" slope="0.00"/>
        <vehicle id="1" x="1587.30" y="1201.60" angle="270.00" type="car" speed="1.80" pos="5.50" lane="D1C1_0" slope="0.00"/>
    </timestep>
    <timestep time="4.40">
        <vehicle id="0" x="2198.40" y="2768.40" angle="180.00" type="car" speed="8.80" pos="24.40" lane="G9G8_0" slope="0.00"/>
        <vehicle id="1" x="1587.10" y="1201.60" angle="270.00" type="car" speed="2.00" pos="5.70" lane="D1C1_0" slope="0.00"/>
    </timestep>
    <timestep time="4.50">
        <vehicle id="0" x="2198.40" y="2767.50" angle="180.00" type="car" speed="9.00" pos="25.30" lane="G9G8_0" slope="0.00"/>
        <vehicle id="1" x="1586.88" y="1201.60" angle="270.00" type="car" speed="2.20" pos="5.92" lane="D1C1_0" slope="0.00"/>
    </timestep>
    <timestep time="4.60">
        <vehicle id="0" x="2198.40" y="2766.58" angle="180.00" type="car" speed="9.20" pos="26.22" lane="G9G8_0" slope="0.00"/>
        <vehicle id="1" x="1586.64" y="1201.60" angle="270.00" type="car" speed="2.40" pos="6.16" lane="D1C1_0" slope="0.00"/>
    </timestep>
    <timestep time="4.70">
        <vehicle id="0" x="2198.40" y="2765.64" angle="180.00" type="car" speed="9.40" pos="27.16" lane="G9G8_0" slope="0.00"/>
        <vehicle id="1" x="1586.38" y="1201.60" angle="270.00" type="car" speed="2.60" pos="6.42" lane="D1C1_0" slope="0.00"/>
    </timestep>
    <timestep time="4.80">
        <vehicle id="0" x="2198.40" y="2764.68" angle="180.00" type="car" speed="9.60" pos="28.12" lane="G9G8_0" slope="0.00"/>
        <vehicle id="1" x="1586.10" y="1201.60" angle="270.00" type="car" speed="2.80" pos="6.70" lane="D1C1_0" slope="0.00"/>
    </timestep>
    <timestep time="4.90">
        <vehicle id="0" x="2198.40" y="2763.70" angle="180.00" type="car" speed="9.80" pos="29.10" lane="G9G8_0" slope="0.00"/>
        <vehicle id="1" x="1585.80" y="1201.60" angle="270.00" type="car" speed="3.00" pos="7.00" lane="D1C1_0" slope="0.00"/>
    </timestep>
    <timestep time="5.00">
        <vehicle id="0" x="2198.40" y="2762.70" angle="180.00" type="car" speed="10.00" pos="30.10" lane="G9G8_0" slope="0.00"/>
        <vehicle id="1" x="1585.48" y="1201.60" angle="270.00" type="car" speed="3.20" pos="7.32" lane="D1C1_0" slope="0.00"/>
    </timestep>
    <timestep time="5.10">
        <vehicle id="0" x="2198.40" y="2761.68" angle="180.00" type="car" speed="10.20" pos="31.12" lane="G9G8_0" slope="0.00"/>
        <vehicle id="1" x="1585.14" y="1201.60" angle="270.00" type="car" speed="3.40" pos="7.66" lane="D1C1_0" slope="0.00"/>
    </timestep>
    <timestep time="5.20">
        <vehicle id="0" x="2198.40" y="2760.64" angle="180.00" type="car" speed="10.40" pos="32.16" lane="G9G8_0" slope="0.00"/>
        <vehicle id="1" x="1584.78" y="1201.60" angle="270.00" type="car" speed="3.60" pos="8.02" lane="D1C1_0" slope="0.00"/>
    </timestep>
    <timestep time="5.30">
        <vehicle id="0" x="2198.40" y="2759.58" angle="180.00" type="car" speed="10.60" pos="33.22" lane="G9G8_0" slope="0.00"/>
        <vehicle id="1" x="1584.40" y="1201.60" angle="270.00" type="car" speed="3.80" pos="8.40" lane="D1C1_0" slope="0.00"/>
    </timestep>
    <timestep time="5.40">
        <vehicle id="0" x="2198.40" y="2758.50" angle="180.00" type="car" speed="10.80" pos="34.30" lane="G9G8_0" slope="0.00"/>
        <vehicle id="1" x="1584.00" y="1201.60" angle="270.00" type="car" speed="4.00" pos="8.80" lane="D1C1_0" slope="0.00"/>
    </timestep>
    <timestep time="5.50">
        <vehicle id="0" x="2198.40" y="2757.40" angle="180.00" type="car" speed="11.00" pos="35.40" lane="G9G8_0" slope="0.00"/>
        <vehicle id="1" x="1583.58" y="1201.60" angle="270.00" type="car" speed="4.20" pos="9.22" lane="D1C1_0" slope="0.00"/>
    </timestep>
    <timestep time="5.60">
        <vehicle id="0" x="2198.40" y="2756.28" angle="180.00" type="car" speed="11.20" pos="36.52" lane="G9G8_0" slope="0.00"/>
        <vehicle id="1" x="1583.14" y="1201.60" angle="270.00" type="car" speed="4.40" pos="9.66" lane="D1C1_0" slope="0.00"/>
    </timestep>
    <timestep time="5.70">
        <vehicle id="0" x="2198.40" y="2755.14" angle="180.00" type="car" speed="11.40" pos="37.66" lane="G9G8_0" slope="0.00"/>
        <vehicle id="1" x="1582.68" y="1201.60" angle="270.00" type="car" speed="4.60" pos="10.12" lane="D1C1_0" slope="0.00"/>
    </timestep>
    <timestep time="5.80">
        <vehicle id="0" x="2198.40" y="2753.98" angle="180.00" type="car" speed="11.60" pos="38.82" lane="G9G8_0" slope="0.00"/>
        <vehicle id="1" x="1582.20" y="1201.60" angle="270.00" type="car" speed="4.80" pos="10.60" lane="D1C1_0" slope="0.00"/>
    </timestep>
    <timestep time="5.90">
        <vehicle id="0" x="2198.40" y="2752.80" angle="180.00" type="car" speed="11.80" pos="40.00" lane="G9G8_0" slope="0.00"/>
        <vehicle id="1" x="1581.70" y="1201.60" angle="270.00" type="car" speed="5.00" pos="11.10" lane="D1C1_0" slope="0.00"/>
    </timestep>
    <timestep time="6.00">
        <vehicle id="0" x="2198.40" y="2751.60" angle="180.00" type="car" speed="12.00" pos="41.20" lane="G9G8_0" slope="0.00"/>
        <vehicle id="1" x="1581.18" y="1201.60" angle="270.00" type="car" speed="5.20" pos="11.62" lane="D1C1_0" slope="0.00"/>
    </timestep>
    <timestep time="6.10">
        <vehicle id="0" x="2198.40" y="2750.38" angle="180.00" type="car" speed="12.20" pos="42.42" lane="G9G8_0" slope="0.00"/>
        <vehicle id="1" x="1580.64" y="1201.60" angle="270.00" type="car" speed="5.40" pos="12.16" lane="D1C1_0" slope="0.00"/>
    </timestep>
    <timestep time="6.20">
        <vehicle id="0" x="2198.40" y="2749.14" angle="180.00" type="car" speed="12.40" pos="43.66" lane="G9G8_0" slope="0.00"/>
        <vehicle id="1" x="1580.08" y="1201.60" angle="270.00" type="car" speed="5.60" pos="12.72" lane="D1C1_0" slope="0.00"/>
    </timestep>
    <timestep time="6.30">
        <vehicle id="0" x="2198.40" y="2747.88" angle="180.00" type="car" speed="12.60" pos="44.92" lane="G9G8_0" slope="0.00"/>
        <vehicle id="1" x="1579.50" y="1201.60" angle="270.00" type="car" speed="5.80" pos="13.30" lane="D1C1_0" slope="0.00"/>
    </timestep>
    <timestep time="6.40">
        <vehicle id="0" x="2198.40" y="2746.60" angle="180.00" type="car" speed="12.80" pos="46.20" lane="G9G8_0" slope="0.00"/>
        <vehicle id="1" x="1578.90" y="1201.60" angle="270.00" type="car" speed="6.00" pos="13.90" lane="D1C1_0" slope="0.00"/>
    </timestep>
    <timestep time="6.50">
        <vehicle id="0" x="2198.40" y="2745.30" angle="180.00" type="car" speed="13.00" pos="47.50" lane="G9G8_0" slope="0.00"/>
        <vehicle id="1" x="1578.28" y="1201.60" angle="270.00" type="car" speed="6.20" pos="14.52" lane="D1C1_0" slope="0.00"/>
    </timestep>
    <timestep time="6.60">
        <vehicle id="0" x="2198.40" y="2743.98" angle="180.00" type="car" speed="13.20" pos="48.82" lane="G9G8_0" slope="0.00"/>
        <vehicle id="1" x="1577.64" y="1201.60" angle="270.00" type="car" speed="6.40" pos="15.16" lane="D1C1_0" slope="0.00"/>
    </timestep>
    <timestep time="6.70">
        <vehicle id="0" x="2198.40" y="2742.64" angle="180.00" type="car" speed="13.40" pos="50.16" lane="G9G8_0" slope="0.00"/>
        <vehicle id="1" x="1576.98" y="1201.60" angle="270.00" type="car" speed="6.60" pos="15.82" lane="D1C1_0" slope="0.00"/>
        <vehicle id="2" x="2411.80" y="2798.40" angle="90.00" type="car" speed="0.00" pos="4.60" lane="H9I9_0" slope="0.00"/>
    </timestep>
    <timestep time="6.80">
        <vehicle id="0" x="2198.40" y="2741.28" angle="180.00" type="car" speed="13.60" pos="51.52" lane="G9G8_0" slope="0.00"/>
        <vehicle id="1" x="1576.30" y="1201.60" angle="270.00" type="car" speed="6.80" pos="16.50" lane="D1C1_0" slope="0.00"/>
        <vehicle id="2" x="2411.82" y="2798.40" angle="90.00" type="car" speed="0.20" pos="4.62" lane="H9I9_0" slope="0.00"/>
    </timestep>
    <timestep time="6.90">
        <vehicle id="0" x="2198.40" y="2739.90" angle="180.00" type="car" speed="13.80" pos="52.90" lane="G9G8_0" slope="0.00"/>
        <vehicle id="1" x="1575.60" y="1201.60" angle="270.00" type="car" speed="7.00" pos="17.20" lane="D1C1_0" slope="0.00"/>
        <vehicle id="2" x="2411.86" y="2798.40" angle="90.00" type="car" speed="0.40" pos="4.66" lane="H9I9_0" slope="0.00"/>
    </timestep>
    <timestep time="7.00">
        <vehicle id="0" x="2198.40" y="2738.50" angle="180.00" type="car" speed="14.00" pos="54.30" lane="G9G8_0" slope="0.00"/>
        <vehicle id="1" x="1574.88" y="1201.60" angle="270.00" type="car" speed="7.20" pos="17.92" lane="D1C1_0" slope="0.00"/>
        <vehicle id="2" x="2411.92" y="2798.40" angle="90.00" type="car" speed="0.60" pos="4.72" lane="H9I9_0" slope="0.00"/>
    </timestep>
    <timestep time="7.10">
        <vehicle id="0" x="2198.40" y="2737.08" angle="180.00" type="car" speed="14.20" pos="55.72" lane="G9G8_0" slope="0.00"/>
        <vehicle id="1" x="1574.14" y="1201.60" angle="270.00" type="car" speed="7.40" pos="18.66" lane="D1C1_0" slope="0.00"/>
        <vehicle id="2" x="2412.00" y="2798.40" angle="90.00" type="car" speed="0.80" pos="4.80" lane="H9I9_0" slope="0.00"/>
    </timestep>
    <timestep time="7.20">
        <vehicle id="0" x="2198.40" y="2735.64" angle="180.00" type="car" speed="14.40" pos="57.16" lane="G9G8_0" slope="0.00"/>
        <vehicle id="1" x="1573.38" y="1201.60" angle="270.00" type="car" speed="7.60" pos="19.42" lane="D1C1_0" slope="0.00"/>
        <vehicle id="2" x="2412.10" y="2798.40" angle="90.00" type="car" speed="1.00" pos="4.90" lane="H9I9_0" slope="0.00"/>
    </timestep>
    <timestep time="7.30">
        <vehicle id="0" x="2198.40" y="2734.18" angle="180.00" type="car" speed="14.60" pos="58.62" lane="G9G8_0" slope="0.00"/>
        <vehicle id="1" x="1572.60" y="1201.60" angle="270.00" type="car" speed="7.80" pos="20.20" lane="D1C1_0" slope="0.00"/>
        <vehicle id="2" x="2412.22" y="2798.40" angle="90.00" type="car" speed="1.20" pos="5.02" lane="H9I9_0" slope="0.00"/>
    </timestep>
    <timestep time="7.40">
        <vehicle id="0" x="2198.40" y="2732.70" angle="180.00" type="car" speed="14.80" pos="60.10" lane="G9G8_0" slope="0.00"/>
        <vehicle id="1" x="1571.80" y="1201.60" angle="270.00" type="car" speed="8.00" pos="21.00" lane="D1C1_0" slope="0.00"/>
        <vehicle id="2" x="2412.36" y="2798.40" angle="90.00" type="car" speed="1.40" pos="5.16" lane="H9I9_0" slope="0.00"/>
    </timestep>
    <timestep time="7.50">
        <vehicle id="0" x="2198.40" y="2731.20" angle="180.00" type="car" speed="15.00" pos="61.60" lane="G9G8_0" slope="0.00"/>
        <vehicle id="1" x="1570.98" y="1201.60" angle="270.00" type="car" speed="8.20" pos="21.82" lane="D1C1_0" slope="0.00"/>
        <vehicle id="2" x="2412.52" y="2798.40" angle="90.00" type="car" speed="1.60" pos="5.32" lane="H9I9_0" slope="0.00"/>
    </timestep>
    <timestep time="7.60">
        <vehicle id="0" x="2198.40" y="2729.68" angle="180.00" type="car" speed="15.20" pos="63.12" lane="G9G8_0" slope="0.00"/>
        <vehicle id="1" x="1570.14" y="1201.60" angle="270.00" type="car" speed="8.40" pos="22.66" lane="D1C1_0" slope="0.00"/>
        <vehicle id="2" x="2412.70" y="2798.40" angle="90.00" type="car" speed="1.80" pos="5.50" lane="H9I9_0" slope="0.00"/>
    </timestep>
    <timestep time="7.70">
        <vehicle id="0" x="2198.40" y="2728.14" angle="180.00" type="car" speed="15.40" pos="64.66" lane="G9G8_0" slope="0.00"/>
        <vehicle id="1" x="1569.28" y="1201.60" angle="270.00" type="car" speed="8.60" pos="23.52" lane="D1C1_0" slope="0.00"/>
        <vehicle id="2" x="2412.90" y="2798.40" angle="90.00" type="car" speed="2.00" pos="5.70" lane="H9I9_0" slope="0.00"/>
    </timestep>
    <timestep time="7.80">
        <vehicle id="0" x="2198.40" y="2726.58" angle="180.00" type="car" speed="15.60" pos="66.22" lane="G9G8_0" slope="0.00"/>
        <vehicle id="1" x="1568.40" y="1201.60" angle="270.00" type="car" speed="8.80" pos="24.40" lane="D1C1_0" slope="0.00"/>
        <vehicle id="2" x="2413.12" y="2798.40" angle="90.00" type="car" speed="2.20" pos="5.92" lane="H9I9_0" slope="0.00"/>
    </timestep>
    <timestep time="7.90">
        <vehicle id="0" x="2198.40" y="2725.00" angle="180.00" type="car" speed="15.80" pos="67.80" lane="G9G8_0" slope="0.00"/>
        <vehicle id="1" x="1567.50" y="1201.60" angle="270.00" type="car" speed="9.00" pos="25.30" lane="D1C1_0" slope="0.00"/>
        <vehicle id="2" x="2413.36" y="2798.40" angle="90.00" type="car" speed="2.40" pos="6.16" lane="H9I9_0" slope="0.00"/>
    </timestep>
    <timestep time="8.00">
        <vehicle id="0" x="2198.40" y="2723.40" angle="180.00" type="car" speed="16.00" pos="69.40" lane="G9G8_0" slope="0.00"/>
        <vehicle id="1" x="1566.58" y="1201.60" angle="270.00" type="car" speed="9.20" pos="26.22" lane="D1C1_0" slope="0.00"/>
        <vehicle id="2" x="2413.62" y="2798.40" angle="90.00" type="car" speed="2.60" pos="6.42" lane="H9I9_0" slope="0.00"/>
    </timestep>
    <timestep time="8.10">
        <vehicle id="0" x="2198.40" y="2721.78" angle="180.00" type="car" speed="16.20" pos="71.02" lane="G9G8_0" slope="0.00"/>
        <vehicle id="1" x="1565.64" y="1201.60" angle="270.00" type="car" speed="9.40" pos="27.16" lane="D1C1_0" slope="0.00"/>
        <vehicle id="2" x="2413.90" y="2798.40" angle="90.00" type="car" speed="2.80" pos="6.70" lane="H9I9_0" slope="0.00"/>
    </timestep>
    <timestep time="8.20">
        <vehicle id="0" x="2198.40" y="2720.14" angle="180.00" type="car" speed="16.40" pos="72.66" lane="G9G8_0" slope="0.00"/>
        <vehicle id="1" x="1564.68" y="1201.60" angle="270.00" type="car" speed="9.60" pos="28.12" lane="D1C1_0" slope="0.00"/>
        <vehicle id="2" x="2414.20" y="2798.40" angle="90.00" type="car" speed="3.00" pos="7.00" lane="H9I9_0" slope="0.00"/>
    </timestep>
    <timestep time="8.30">
        <vehicle id="0" x="2198.40" y="2718.48" angle="180.00" type="car" speed="16.60" pos="74.32" lane="G9G8_0" slope="0.00"/>
        <vehicle id="1" x="1563.70" y="1201.60" angle="270.00" type="car" speed="9.80" pos="29.10" lane="D1C1_0" slope="0.00"/>
        <vehicle id="2" x="2414.52" y="2798.40" angle="90.00" type="car" speed="3.20" pos="7.32" lane="H9I9_0" slope="0.00"/>
    </timestep>
    <timestep time="8.40">
        <vehicle id="0" x="2198.40" y="2716.80" angle="180.00" type="car" speed="16.80" pos="76.00" lane="G9G8_0" slope="0.00"/>
        <vehicle id="1" x="1562.70" y="1201.60" angle="270.00" type="car" speed="10.00" pos="30.10" lane="D1C1_0" slope="0.00"/>
        <vehicle id="2" x="2414.86" y="2798.40" angle="90.00" type="car" speed="3.40" pos="7.66" lane="H9I9_0" slope="0.00"/>
    </timestep>
    <timestep time="8.50">
        <vehicle id="0" x="2198.40" y="2715.10" angle="180.00" type="car" speed="17.00" pos="77.70" lane="G9G8_0" slope="0.00"/>
        <vehicle id="1" x="1561.68" y="1201.60" angle="270.00" type="car" speed="10.20" pos="31.12" lane="D1C1_0" slope="0.00"/>
        <vehicle id="2" x="2415.22" y="2798.40" angle="90.00" type="car" speed="3.60" pos="8.02" lane="H9I9_0" slope="0.00"/>
    </timestep>
    <timestep time="8.60">
        <vehicle id="0" x="2198.40" y="2713.38" angle="180.00" type="car" speed="17.20" pos="79.42" lane="G9G8_0" slope="0.00"/>
        <vehicle id="1" x="1560.64" y="1201.60" angle="270.00" type="car" speed="10.40" pos="32.16" lane="D1C1_0" slope="0.00"/>
        <vehicle id="2" x="2415.60" y="2798.40" angle="90.00" type="car" speed="3.80" pos="8.40" lane="H9I9_0" slope="0.00"/>
    </timestep>
    <timestep time="8.70">
        <vehicle id="0" x="2198.40" y="2711.64" angle="180.00" type="car" speed="17.40" pos="81.16" lane="G9G8_0" slope="0.00"/>
        <vehicle id="1" x="1559.58" y="1201.60" angle="270.00" type="car" speed="10.60" pos="33.22" lane="D1C1_0" slope="0.00"/>
        <vehicle id="2" x="2416.00" y="2798.40" angle="90.00" type="car" speed="4.00" pos="8.80" lane="H9I9_0" slope="0.00"/>
    </timestep>
    <timestep time="8.80">
        <vehicle id="0" x="2198.40" y="2709.88" angle="180.00" type="car" speed="17.60" pos="82.92" lane="G9G8_0" slope="0.00"/>
        <vehicle id="1" x="1558.50" y="1201.60" angle="270.00" type="car" speed="10.80" pos="34.30" lane="D1C1_0" slope="0.00"/>
        <vehicle id="2" x="2416.42" y="2798.40" angle="90.00" type="car" speed="4.20" pos="9.22" lane="H9I9_0" slope="0.00"/>
    </timestep>
    <timestep time="8.90">
        <vehicle id="0" x="2198.40" y="2708.10" angle="180.00" type="car" speed="17.80" pos="84.70" lane="G9G8_0" slope="0.00"/>
        <vehicle id="1" x="1557.40" y="1201.60" angle="270.00" type="car" speed="11.00" pos="35.40" lane="D1C1_0" slope="0.00"/>
        <vehicle id="2" x="2416.86" y="2798.40" angle="90.00" type="car" speed="4.40" pos="9.66" lane="H9I9_0" slope="0.00"/>
    </timestep>
    <timestep time="9.00">
        <vehicle id="0" x="2198.40" y="2706.30" angle="180.00" type="car" speed="18.00" pos="86.50" lane="G9G8_0" slope="0.00"/>
        <vehicle id="1" x="1556.28" y="1201.60" angle="270.00" type="car" speed="11.20" pos="36.52" lane="D1C1_0" slope="0.00"/>
        <vehicle id="2" x="2417.32" y="2798.40" angle="90.00" type="car" speed="4.60" pos="10.12" lane="H9I9_0" slope="0.00"/>
    </timestep>
    <timestep time="9.10">
        <vehicle id="0" x="2198.40" y="2704.48" angle="180.00" type="car" speed="18.20" pos="88.32" lane="G9G8_0" slope="0.00"/>
        <vehicle id="1" x="1555.14" y="1201.60" angle="270.00" type="car" speed="11.40" pos="37.66" lane="D1C1_0" slope="0.00"/>
        <vehicle id="2" x="2417.80" y="2798.40" angle="90.00" type="car" speed="4.80" pos="10.60" lane="H9I9_0" slope="0.00"/>
    </timestep>
    <timestep time="9.20">
        <vehicle id="0" x="2198.40" y="2702.64" angle="180.00" type="car" speed="18.40" pos="90.16" lane="G9G8_0" slope="0.00"/>
        <vehicle id="1" x="1553.98" y="1201.60" angle="270.00" type="car" speed="11.60" pos="38.82" lane="D1C1_0" slope="0.00"/>
        <vehicle id="2" x="2418.30" y="2798.40" angle="90.00" type="car" speed="5.00" pos="11.10" lane="H9I9_0" slope="0.00"/>
    </timestep>
    <timestep time="9.30">
        <vehicle id="0" x="2198.40" y="2700.78" angle="180.00" type="car" speed="18.60" pos="92.02" lane="G9G8_0" slope="0.00"/>
        <vehicle id="1" x="1552.80" y="1201.60" angle="270.00" type="car" speed="11.80" pos="40.00" lane="D1C1_0" slope="0.00"/>
        <vehicle id="2" x="2418.82" y="2798.40" angle="90.00" type="car" speed="5.20" pos="11.62" lane="H9I9_0" slope="0.00"/>
    </timestep>
    <timestep time="9.40">
        <vehicle id="0" x="2198.40" y="2698.90" angle="180.00" type="car" speed="18.80" pos="93.90" lane="G9G8_0" slope="0.00"/>
        <vehicle id="1" x="1551.60" y="1201.60" angle="270.00" type="car" speed="12.00" pos="41.20" lane="D1C1_0" slope="0.00"/>
        <vehicle id="2" x="2419.36" y="2798.40" angle="90.00" type="car" speed="5.40" pos="12.16" lane="H9I9_0" slope="0.00"/>
    </timestep>
    <timestep time="9.50">
        <vehicle id="0" x="2198.40" y="2697.00" angle="180.00" type="car" speed="19.00" pos="95.80" lane="G9G8_0" slope="0.00"/>
        <vehicle id="1" x="1550.38" y="1201.60" angle="270.00" type="car" speed="12.20" pos="42.42" lane="D1C1_0" slope="0.00"/>
        <vehicle id="2" x="2419.92" y="2798.40" angle="90.00" type="car" speed="5.60" pos="12.72" lane="H9I9_0" slope="0.00"/>
    </timestep>
    <timestep time="9.60">
        <vehicle id="0" x="2198.40" y="2695.08" angle="180.00" type="car" speed="19.20" pos="97.72" lane="G9G8_0" slope="0.00"/>
        <vehicle id="1" x="1549.14" y="1201.60" angle="270.00" type="car" speed="12.40" pos="43.66" lane="D1C1_0" slope="0.00"/>
        <vehicle id="2" x="2420.50" y="2798.40" angle="90.00" type="car" speed="5.80" pos="13.30" lane="H9I9_0" slope="0.00"/>
    </timestep>
    <timestep time="9.70">
        <vehicle id="0" x="2198.40" y="2693.14" angle="180.00" type="car" speed="19.40" pos="99.66" lane="G9G8_0" slope="0.00"/>
        <vehicle id="1" x="1547.88" y="1201.60" angle="270.00" type="car" speed="12.60" pos="44.92" lane="D1C1_0" slope="0.00"/>
        <vehicle id="2" x="2421.10" y="2798.40" angle="90.00" type="car" speed="6.00" pos="13.90" lane="H9I9_0" slope="0.00"/>
    </timestep>
    <timestep time="9.80">